 Entering Link 1 = C:\G09W\l1.exe PID=      4764.
  
 Copyright (c) 1988,1990,1992,1993,1995,1998,2003,2009,2013,
            Gaussian, Inc.  All Rights Reserved.
  
 This is part of the Gaussian(R) 09 program.  It is based on
 the Gaussian(R) 03 system (copyright 2003, Gaussian, Inc.),
 the Gaussian(R) 98 system (copyright 1998, Gaussian, Inc.),
 the Gaussian(R) 94 system (copyright 1995, Gaussian, Inc.),
 the Gaussian 92(TM) system (copyright 1992, Gaussian, Inc.),
 the Gaussian 90(TM) system (copyright 1990, Gaussian, Inc.),
 the Gaussian 88(TM) system (copyright 1988, Gaussian, Inc.),
 the Gaussian 86(TM) system (copyright 1986, Carnegie Mellon
 University), and the Gaussian 82(TM) system (copyright 1983,
 Carnegie Mellon University). Gaussian is a federally registered
 trademark of Gaussian, Inc.
  
 This software contains proprietary and confidential information,
 including trade secrets, belonging to Gaussian, Inc.
  
 This software is provided under written license and may be
 used, copied, transmitted, or stored only in accord with that
 written license.
  
 The following legend is applicable only to US Government
 contracts under FAR:
  
                    RESTRICTED RIGHTS LEGEND
  
 Use, reproduction and disclosure by the US Government is
 subject to restrictions as set forth in subparagraphs (a)
 and (c) of the Commercial Computer Software - Restricted
 Rights clause in FAR 52.227-19.
  
 Gaussian, Inc.
 340 Quinnipiac St., Bldg. 40, Wallingford CT 06492
  
  
 ---------------------------------------------------------------
 Warning -- This program may not be used in any manner that
 competes with the business of Gaussian, Inc. or will provide
 assistance to any competitor of Gaussian, Inc.  The licensee
 of this program is prohibited from giving any competitor of
 Gaussian, Inc. access to this program.  By using this program,
 the user acknowledges that Gaussian, Inc. is engaged in the
 business of creating and licensing software in the field of
 computational chemistry and represents and warrants to the
 licensee that it is not a competitor of Gaussian, Inc. and that
 it will not use this program in any manner prohibited above.
 ---------------------------------------------------------------
  

 Cite this work as:
 Gaussian 09, Revision D.01,
 M. J. Frisch, G. W. Trucks, H. B. Schlegel, G. E. Scuseria, 
 M. A. Robb, J. R. Cheeseman, G. Scalmani, V. Barone, B. Mennucci, 
 G. A. Petersson, H. Nakatsuji, M. Caricato, X. Li, H. P. Hratchian, 
 A. F. Izmaylov, J. Bloino, G. Zheng, J. L. Sonnenberg, M. Hada, 
 M. Ehara, K. Toyota, R. Fukuda, J. Hasegawa, M. Ishida, T. Nakajima, 
 Y. Honda, O. Kitao, H. Nakai, T. Vreven, J. A. Montgomery, Jr., 
 J. E. Peralta, F. Ogliaro, M. Bearpark, J. J. Heyd, E. Brothers, 
 K. N. Kudin, V. N. Staroverov, T. Keith, R. Kobayashi, J. Normand, 
 K. Raghavachari, A. Rendell, J. C. Burant, S. S. Iyengar, J. Tomasi, 
 M. Cossi, N. Rega, J. M. Millam, M. Klene, J. E. Knox, J. B. Cross, 
 V. Bakken, C. Adamo, J. Jaramillo, R. Gomperts, R. E. Stratmann, 
 O. Yazyev, A. J. Austin, R. Cammi, C. Pomelli, J. W. Ochterski, 
 R. L. Martin, K. Morokuma, V. G. Zakrzewski, G. A. Voth, 
 P. Salvador, J. J. Dannenberg, S. Dapprich, A. D. Daniels, 
 O. Farkas, J. B. Foresman, J. V. Ortiz, J. Cioslowski, 
 and D. J. Fox, Gaussian, Inc., Wallingford CT, 2013.
 
 ******************************************
 Gaussian 09:  EM64W-G09RevD.01 13-Apr-2013
                18-Sep-2020 
 ******************************************
 %chk=C:\Users\hirok\SynologyDrive\Drive\Researches\Gaussian\AQDS\AQDSradical_sp.
 chk
 %cpu=0,2,4,6,8,10,12,14
 SetSPE:  set environment variable "MP_BIND" = "yes"
 SetSPE:  set environment variable "MP_BLIST" = "0,2,4,6,8,10,12,14"
 Will use up to    8 processors via shared memory.
 %mem=4GB
 ----------------------------------------------------------------------
 # nmr=(giao,spinspin,mixed) ub3lyp/6-31g(d) guess=core geom=connectivi
 ty
 ----------------------------------------------------------------------
 1/38=1,57=2/1;
 2/12=2,17=6,18=5,40=1/2;
 3/5=1,6=6,7=1,10=1100000,11=2,16=1,25=1,30=1,74=-5,116=2/1,2,8,3;
 4/5=2/1;
 5/5=2,38=5/2;
 8/6=1,10=90,11=11/1;
 10/13=100,45=16,47=3/2;
 6/7=2,8=2,9=2,10=2,28=1/1;
 99/9=1/99;
 ---------------------------------------
 AQDS3- trivalent ion and radical NMR sp
 ---------------------------------------
 Symbolic Z-matrix:
 Charge = -3 Multiplicity = 2
 C                    -3.75837   0.24775  -0.02809 
 C                    -2.77118  -0.72246  -0.02248 
 C                    -1.3934   -0.38037  -0.02093 
 C                    -1.02141   0.99894  -0.02226 
 C                    -2.05145   1.97052  -0.03207 
 C                    -3.38548   1.61506  -0.03613 
 C                    -0.379    -1.44101  -0.02249 
 C                     0.379     1.44101  -0.02267 
 C                     1.3934    0.38037  -0.02095 
 C                     1.02141  -0.99894  -0.02229 
 C                     2.05145  -1.97052  -0.03219 
 H                     1.7413   -3.01269  -0.04309 
 C                     2.77118   0.72246  -0.02245 
 H                    -3.03926  -1.77347  -0.03034 
 H                    -1.7413    3.0127   -0.04298 
 H                    -4.16789   2.36874  -0.06761 
 H                     3.03926   1.77347  -0.03031 
 C                     3.75837  -0.24775  -0.0281 
 C                     3.38548  -1.61506  -0.03624 
 H                     4.16789  -2.36874  -0.06774 
 S                     5.5297    0.17081   0.02873 
 O                     6.17312  -0.79287  -0.91902 
 O                     5.62938   1.59474  -0.40604 
 S                    -5.5297   -0.17081   0.02871 
 O                    -6.17312   0.79293  -0.91897 
 O                    -5.62938  -1.59471  -0.40614 
 O                    -5.94532   0.04989   1.44832 
 O                     5.94532  -0.04999   1.44832 
 O                    -0.68583  -2.6667   -0.02508 
 O                     0.68583   2.66671  -0.02401 
 
 Standard basis: 6-31G(d) (6D, 7F)
 Converting basis for Fermi contact spin-spin IFCMod=1.
 AO basis functions are being uncontracted.
 There are   816 symmetry adapted cartesian basis functions of A   symmetry.
 There are   816 symmetry adapted basis functions of A   symmetry.
   816 basis functions,   816 primitive gaussians,   816 cartesian basis functions
    95 alpha electrons       94 beta electrons
       nuclear repulsion energy      2237.1939799309 Hartrees.
 NAtoms=   30 NActive=   30 NUniq=   30 SFac= 1.00D+00 NAtFMM=   60 NAOKFM=F Big=F
 Integral buffers will be    131072 words long.
 Raffenetti 2 integral format.
 Two-electron integral symmetry is turned on.
 One-electron integrals computed using PRISM.
 NBasis=   816 RedAO= T EigKep=  1.37D-05  NBF=   816
 NBsUse=   816 1.00D-06 EigRej= -1.00D+00 NBFU=   816
 Core hamiltonian diagonalized for initial guess.
 Initial guess <Sx>= 0.0000 <Sy>= 0.0000 <Sz>= 0.5000 <S**2>= 0.7500 S= 0.5000
 Requested convergence on RMS density matrix=1.00D-08 within 128 cycles.
 Requested convergence on MAX density matrix=1.00D-06.
 Requested convergence on             energy=1.00D-06.
 No special actions if energy rises.
 Integral accuracy reduced to 1.0D-05 until final iterations.
 EnCoef did   100 forward-backward iterations
 Problem detected with inexpensive integrals.
 Switching to full accuracy and repeating last cycle.
 EnCoef did   100 forward-backward iterations
 EnCoef did   100 forward-backward iterations
 EnCoef did    15 forward-backward iterations
 EnCoef did     4 forward-backward iterations
 EnCoef did   100 forward-backward iterations
 EnCoef did     3 forward-backward iterations
 EnCoef did     2 forward-backward iterations
 Restarting incremental Fock formation.
 SCF Done:  E(UB3LYP) =  -1935.35103592     A.U. after   34 cycles
            NFock= 34  Conv=0.62D-08     -V/T= 2.0033
 <Sx>= 0.0000 <Sy>= 0.0000 <Sz>= 0.5000 <S**2>= 0.7608 S= 0.5054
 <L.S>= 0.000000000000E+00
 Annihilation of the first spin contaminant:
 S**2 before annihilation     0.7608,   after     0.7500
                                                                                                                                                                                                                                                                                                                                                                                                                                                                     IDoAtm=111111111111111111111111111111
          Differentiating once with respect to Fermi-contact.
          Electric field/nuclear overlap derivatives assumed to be zero.
          There are    30 degrees of freedom in the 1st order CPHF.  IDoFFX=0 NUNeed=    30.
     30 vectors produced by pass  0 Test12= 4.55D-17 3.33D-11 XBig12= 3.99D+02 2.52D+00.
 AX will form    30 AO Fock derivatives at one time.
     30 vectors produced by pass  1 Test12= 4.55D-17 3.33D-11 XBig12= 2.72D+00 1.32D-01.
     30 vectors produced by pass  2 Test12= 4.55D-17 3.33D-11 XBig12= 4.25D-02 7.45D-02.
     30 vectors produced by pass  3 Test12= 4.55D-17 3.33D-11 XBig12= 4.41D-03 3.03D-02.
     30 vectors produced by pass  4 Test12= 4.55D-17 3.33D-11 XBig12= 3.86D-04 3.47D-03.
     30 vectors produced by pass  5 Test12= 4.55D-17 3.33D-11 XBig12= 6.45D-06 2.43D-04.
     30 vectors produced by pass  6 Test12= 4.55D-17 3.33D-11 XBig12= 1.07D-07 2.96D-05.
     30 vectors produced by pass  7 Test12= 4.55D-17 3.33D-11 XBig12= 3.14D-09 6.60D-06.
     30 vectors produced by pass  8 Test12= 4.55D-17 3.33D-11 XBig12= 7.46D-11 1.36D-06.
     30 vectors produced by pass  9 Test12= 4.55D-17 3.33D-11 XBig12= 2.30D-12 1.50D-07.
     30 vectors produced by pass 10 Test12= 4.55D-17 3.33D-11 XBig12= 5.46D-14 1.21D-08.
     29 vectors produced by pass 11 Test12= 4.55D-17 3.33D-11 XBig12= 6.85D-16 1.96D-09.
     21 vectors produced by pass 12 Test12= 4.55D-17 3.33D-11 XBig12= 9.98D-18 2.27D-10.
      1 vectors produced by pass 13 Test12= 4.55D-17 3.33D-11 XBig12= 2.11D-19 4.14D-11.
 InvSVY:  IOpt=1 It=  1 EMax= 3.20D-14
 Solved reduced A of dimension   381 with    30 vectors.
 Fermi Contact (FC) contribution to K (Hz):
                1             2             3             4             5 
      1  0.123400D+11
      2  0.350325D+02  0.123400D+11
      3  0.129285D+00  0.318821D+02  0.123400D+11
      4  0.236555D+01  0.216971D+00  0.281448D+02  0.123400D+11
      5 -0.350794D+00  0.268866D+01  0.508238D+00  0.322290D+02  0.123400D+11
      6  0.309392D+02  0.496807D+00  0.257544D+01  0.221175D+00  0.342015D+02
      7  0.156664D+01  0.868222D+00  0.303937D+02  0.159329D+01  0.156459D+01
      8 -0.345341D+00  0.141607D+01  0.144852D+01  0.300985D+02  0.679582D+00
      9  0.163848D+00 -0.228014D+00 -0.517948D+00  0.751598D+01  0.817467D+00
     10  0.101900D+00  0.940982D+00  0.751598D+01 -0.410794D+00 -0.217324D+00
     11  0.148192D+00  0.451726D+00  0.817496D+00 -0.217384D+00  0.537274D-01
     12 -0.921698D-02  0.114570D-01 -0.486848D-01  0.673560D-02 -0.842965D-02
     13 -0.957387D-01  0.511866D-01 -0.228084D+00  0.941024D+00  0.451731D+00
     14  0.394662D-01  0.213092D+02  0.287584D+00  0.795673D+00 -0.142895D+00
     15  0.118074D+01 -0.155028D+00  0.758949D+00  0.222151D+00  0.200617D+02
     16  0.860163D-01  0.725699D+00 -0.121559D+00  0.948345D+00  0.535033D+00
     17  0.106122D-01 -0.895231D-02  0.675479D-02 -0.456329D-01  0.110882D-01
     18  0.106511D+00 -0.956463D-01  0.163830D+00  0.101962D+00  0.148145D+00
     19 -0.495679D-01  0.149489D+00  0.737159D-01  0.162082D+00 -0.822166D-01
     20  0.140342D-01  0.399598D-03  0.785330D-01 -0.161190D-01  0.128429D-01
     21 -0.467243D-01  0.473613D-01 -0.788651D-01  0.411573D+00  0.142755D-01
     22  0.423586D-02 -0.340247D-02  0.696989D-02  0.127713D-01  0.407766D-02
     23  0.919245D-04 -0.330898D-03  0.467232D-03  0.306155D-03 -0.108736D-02
     24  0.166198D+02  0.351513D+01  0.317486D+01 -0.671529D+00  0.336693D+01
     25  0.237233D+01  0.581879D-01  0.702480D-01  0.636655D-01 -0.127728D-01
     26  0.198424D+01  0.488626D+00  0.660307D-02  0.706992D-01  0.720936D-01
     27  0.226528D+01  0.110538D+00  0.295289D-01  0.316380D-01 -0.190205D-02
     28  0.121586D-01 -0.104862D-01  0.945042D-02  0.475018D-03  0.628929D-02
     29  0.191385D+00  0.144562D+01  0.269606D+01  0.395341D+00  0.145804D+00
     30  0.101925D+00  0.104430D+00  0.289967D+00  0.247299D+01  0.170002D+01
                6             7             8             9            10 
      6  0.123400D+11
      7 -0.290410D+00  0.123400D+11
      8  0.161788D+01  0.138908D+01  0.123400D+11
      9  0.737200D-01  0.144853D+01  0.303937D+02  0.123400D+11
     10  0.162069D+00  0.300985D+02  0.159331D+01  0.281448D+02  0.123400D+11
     11 -0.822216D-01  0.679621D+00  0.156461D+01  0.508169D+00  0.322291D+02
     12  0.888848D-02  0.484558D+00  0.148665D+00  0.758949D+00  0.222147D+00
     13  0.149545D+00  0.141602D+01  0.868220D+00  0.318820D+02  0.216934D+00
     14  0.101356D+01  0.516319D+00  0.149687D+00  0.675269D-02 -0.456387D-01
     15  0.617766D+00  0.148671D+00  0.484569D+00 -0.486830D-01  0.673356D-02
     16  0.202690D+02  0.293581D-01  0.467340D-01  0.785355D-01 -0.161262D-01
     17 -0.805097D-02  0.149687D+00  0.516317D+00  0.287590D+00  0.795672D+00
     18 -0.495813D-01 -0.345356D+00  0.156656D+01  0.129315D+00  0.236556D+01
     19  0.810469D-01  0.161786D+01 -0.290468D+00  0.257545D+01  0.221202D+00
     20 -0.128846D-01  0.467328D-01  0.293574D-01 -0.121554D+00  0.948333D+00
     21  0.432912D-01  0.174588D+00  0.232067D+00  0.317517D+01 -0.671747D+00
     22 -0.205321D-02 -0.684137D-02  0.172013D-01  0.703300D-01  0.636660D-01
     23  0.566741D-03  0.744371D-02  0.194999D-01  0.660770D-02  0.706751D-01
     24  0.393970D+01  0.232133D+00  0.174812D+00 -0.786310D-01  0.411254D+00
     25  0.314084D+00  0.171072D-01 -0.679821D-02  0.698328D-02  0.127769D-01
     26 -0.657807D-01  0.193948D-01  0.741448D-02  0.498449D-03  0.297215D-03
     27 -0.101562D-01  0.190342D-01 -0.185196D-01  0.952801D-02  0.419994D-03
     28 -0.706498D-02 -0.185451D-01  0.189596D-01  0.295377D-01  0.315683D-01
     29  0.932496D-01 -0.207540D+02 -0.122576D+00  0.290132D+00  0.247293D+01
     30  0.226585D+00 -0.122567D+00 -0.207539D+02  0.269608D+01  0.395166D+00
               11            12            13            14            15 
     11  0.123400D+11
     12  0.200618D+02  0.123400D+11
     13  0.268872D+01 -0.155029D+00  0.123400D+11
     14  0.110930D-01 -0.104486D-02 -0.895975D-02  0.123400D+11
     15 -0.843311D-02  0.102069D-02  0.114634D-01  0.190909D-01  0.123400D+11
     16  0.128402D-01 -0.133135D-02  0.390474D-03  0.579949D-01  0.299330D+00
     17 -0.142904D+00  0.190907D-01  0.213093D+02  0.111179D-02 -0.104485D-02
     18 -0.350886D+00  0.118074D+01  0.350325D+02  0.106073D-01 -0.921373D-02
     19  0.342016D+02  0.617771D+00  0.496768D+00 -0.804951D-02  0.888767D-02
     20  0.535012D+00  0.299330D+00  0.725707D+00  0.152953D-02 -0.133140D-02
     21  0.336699D+01  0.334039D+00  0.351481D+01 -0.440373D-02  0.374012D-02
     22 -0.126729D-01  0.121089D-01  0.581756D-01  0.376925D-03 -0.474170D-03
     23  0.720723D-01  0.277598D-01  0.488676D+00 -0.681050D-05  0.731234D-04
     24  0.144006D-01  0.371229D-02  0.470772D-01  0.109790D+01  0.334059D+00
     25  0.418740D-02 -0.477704D-03 -0.343905D-02 -0.102423D-01  0.121132D-01
     26 -0.103701D-02  0.756918D-04 -0.421886D-03 -0.733074D-02  0.277705D-01
     27  0.626979D-02 -0.115083D-02 -0.105473D-01 -0.600365D-02  0.137149D-01
     28 -0.192144D-02  0.137085D-01  0.110416D+00  0.107591D-02 -0.114504D-02
     29  0.169983D+01 -0.705685D-02  0.104664D+00  0.317696D-02  0.216185D-01
     30  0.146015D+00  0.216102D-01  0.144525D+01  0.219143D-01 -0.704796D-02
               16            17            18            19            20 
     16  0.123400D+11
     17  0.152953D-02  0.123400D+11
     18  0.140326D-01  0.394776D-01  0.123400D+11
     19 -0.128761D-01  0.101357D+01  0.309392D+02  0.123400D+11
     20  0.223881D-02  0.579952D-01  0.860233D-01  0.202690D+02  0.123400D+11
     21  0.195432D-02  0.109794D+01  0.166203D+02  0.393935D+01  0.765840D+00
     22  0.548331D-03 -0.102380D-01  0.237235D+01  0.313995D+00  0.857407D-02
     23 -0.855293D-04 -0.733935D-02  0.198426D+01 -0.658249D-01 -0.198265D-01
     24  0.765742D+00 -0.436494D-02 -0.464666D-01  0.430972D-01  0.198864D-02
     25  0.856026D-02  0.378153D-03  0.423632D-02 -0.214138D-02  0.555108D-03
     26 -0.198259D-01  0.484288D-05  0.152935D-03  0.529046D-03 -0.719997D-04
     27 -0.943850D-03  0.108274D-02  0.122454D-01 -0.709604D-02  0.838408D-03
     28  0.823901D-03 -0.598866D-02  0.226545D+01 -0.102126D-01 -0.928306D-03
     29  0.193949D-02  0.219319D-01  0.102271D+00  0.226481D+00 -0.104469D-01
     30 -0.104714D-01  0.318523D-02  0.191271D+00  0.932784D-01  0.194599D-02
               21            22            23            24            25 
     21  0.123400D+11
     22 -0.148003D+03  0.123400D+11
     23 -0.151070D+03 -0.247145D+01  0.123400D+11
     24  0.213455D-01 -0.190845D-02 -0.237286D-03  0.123400D+11
     25 -0.195167D-02  0.443670D-03 -0.197952D-04 -0.148002D+03  0.123400D+11
     26 -0.355619D-03 -0.428529D-04  0.125223D-03 -0.151070D+03 -0.247141D+01
     27 -0.601558D-02  0.406303D-03  0.313995D-04 -0.148629D+03 -0.247614D+01
     28 -0.148628D+03 -0.247613D+01 -0.246268D+01 -0.598700D-02  0.421021D-03
     29  0.100519D-01 -0.145721D-02  0.101755D-01 -0.235444D-01  0.672340D-02
     30 -0.251872D-01  0.662171D-02 -0.217001D-02  0.804207D-02 -0.152352D-02
               26            27            28            29            30 
     26  0.123400D+11
     27 -0.246274D+01  0.123400D+11
     28 -0.452108D-04  0.154884D-02  0.123400D+11
     29 -0.203137D-02  0.175078D-01  0.589876D-03  0.123400D+11
     30  0.992593D-02  0.885117D-04  0.170991D-01  0.299051D+00  0.123400D+11
 Fermi Contact (FC) contribution to J (Hz):
                1             2             3             4             5 
      1  0.243533D+11
      2  0.691374D+02  0.243533D+11
      3  0.255147D+00  0.629201D+02  0.243533D+11
      4  0.466848D+01  0.428198D+00  0.555445D+02  0.243533D+11
      5 -0.692300D+00  0.530613D+01  0.100302D+01  0.636048D+02  0.243533D+11
      6  0.610592D+02  0.980460D+00  0.508270D+01  0.436494D+00  0.674975D+02
      7  0.309180D+01  0.171346D+01  0.599828D+02  0.314439D+01  0.308775D+01
      8 -0.681539D+00  0.279466D+01  0.285869D+01  0.594000D+02  0.134117D+01
      9  0.323357D+00 -0.449992D+00 -0.102218D+01  0.148330D+02  0.161329D+01
     10  0.201102D+00  0.185705D+01  0.148330D+02 -0.810712D+00 -0.428894D+00
     11  0.292461D+00  0.891493D+00  0.161335D+01 -0.429013D+00  0.106032D+00
     12 -0.723248D-01  0.899019D-01 -0.382025D+00  0.528536D-01 -0.661466D-01
     13 -0.188943D+00  0.101018D+00 -0.450130D+00  0.185713D+01  0.891503D+00
     14  0.309688D+00  0.167212D+03  0.225665D+01  0.624357D+01 -0.112128D+01
     15  0.926515D+01 -0.121649D+01  0.595540D+01  0.174320D+01  0.157422D+03
     16  0.674962D+00  0.569449D+01 -0.953859D+00  0.744157D+01  0.419835D+01
     17  0.832733D-01 -0.702479D-01  0.530042D-01 -0.358077D+00  0.870079D-01
     18  0.210202D+00 -0.188760D+00  0.323322D+00  0.201224D+00  0.292367D+00
     19 -0.978234D-01  0.295020D+00  0.145480D+00  0.319874D+00 -0.162256D+00
     20  0.110125D+00  0.313561D-02  0.616241D+00 -0.126485D+00  0.100777D+00
     21 -0.281733D-01  0.285574D-01 -0.475532D-01  0.248166D+00  0.860769D-02
     22 -0.450772D-02  0.362084D-02 -0.741722D-02 -0.135910D-01 -0.433937D-02
     23 -0.978243D-04  0.352135D-03 -0.497219D-03 -0.325805D-03  0.115714D-02
     24  0.100213D+02  0.211952D+01  0.191434D+01 -0.404911D+00  0.203016D+01
     25 -0.252459D+01 -0.619224D-01 -0.747565D-01 -0.677516D-01  0.135926D-01
     26 -0.211159D+01 -0.519986D+00 -0.702686D-02 -0.752367D-01 -0.767206D-01
     27 -0.241066D+01 -0.117632D+00 -0.314241D-01 -0.336686D-01  0.202412D-02
     28 -0.129390D-01  0.111592D-01 -0.100570D-01 -0.505505D-03 -0.669294D-02
     29 -0.203669D+00 -0.153841D+01 -0.286910D+01 -0.420714D+00 -0.155162D+00
     30 -0.108466D+00 -0.111132D+00 -0.308578D+00 -0.263171D+01 -0.180912D+01
                6             7             8             9            10 
      6  0.243533D+11
      7 -0.573132D+00  0.243533D+11
      8  0.319293D+01  0.274137D+01  0.243533D+11
      9  0.145488D+00  0.285872D+01  0.599827D+02  0.243533D+11
     10  0.319847D+00  0.594002D+02  0.314443D+01  0.555445D+02  0.243533D+11
     11 -0.162266D+00  0.134125D+01  0.308780D+01  0.100288D+01  0.636049D+02
     12  0.697470D-01  0.380228D+01  0.116656D+01  0.595540D+01  0.174316D+01
     13  0.295131D+00  0.279455D+01  0.171345D+01  0.629200D+02  0.428125D+00
     14  0.795333D+01  0.405151D+01  0.117458D+01  0.529877D-01 -0.358122D+00
     15  0.484755D+01  0.116661D+01  0.380237D+01 -0.382011D+00  0.528376D-01
     16  0.159049D+03  0.230370D+00  0.366717D+00  0.616261D+00 -0.126541D+00
     17 -0.631752D-01  0.117458D+01  0.405149D+01  0.225669D+01  0.624356D+01
     18 -0.978499D-01 -0.681569D+00  0.309164D+01  0.255207D+00  0.466849D+01
     19  0.159948D+00  0.319288D+01 -0.573247D+00  0.508272D+01  0.436548D+00
     20 -0.101104D+00  0.366707D+00  0.230365D+00 -0.953825D+00  0.744148D+01
     21  0.261033D-01  0.105271D+00  0.139929D+00  0.191453D+01 -0.405043D+00
     22  0.218499D-02  0.728045D-02 -0.183053D-01 -0.748438D-01 -0.677521D-01
     23 -0.603115D-03 -0.792146D-02 -0.207514D-01 -0.703179D-02 -0.752111D-01
     24  0.237552D+01  0.139969D+00  0.105406D+00 -0.474120D-01  0.247973D+00
     25 -0.334243D+00 -0.182051D-01  0.723453D-02 -0.743147D-02 -0.135970D-01
     26  0.700026D-01 -0.206396D-01 -0.789035D-02 -0.530440D-03 -0.316291D-03
     27  0.108080D-01 -0.202558D-01  0.197082D-01 -0.101395D-01 -0.446949D-03
     28  0.751842D-02  0.197353D-01 -0.201765D-01 -0.314334D-01 -0.335944D-01
     29 -0.992345D-01  0.220860D+02  0.130443D+00 -0.308752D+00 -0.263165D+01
     30 -0.241127D+00  0.130434D+00  0.220859D+02 -0.286912D+01 -0.420528D+00
               11            12            13            14            15 
     11  0.243533D+11
     12  0.157423D+03  0.385007D+12
     13  0.530625D+01 -0.121650D+01  0.243533D+11
     14  0.870453D-01 -0.325997D-01 -0.703063D-01  0.385007D+12
     15 -0.661738D-01  0.318456D-01  0.899519D-01  0.595635D+00  0.385007D+12
     16  0.100755D+00 -0.415382D-01  0.306401D-02  0.180944D+01  0.933907D+01
     17 -0.112135D+01  0.595630D+00  0.167212D+03  0.346879D-01 -0.325992D-01
     18 -0.692483D+00  0.926517D+01  0.691374D+02  0.832347D-01 -0.722993D-01
     19  0.674977D+02  0.484759D+01  0.980383D+00 -0.631638D-01  0.697407D-01
     20  0.419819D+01  0.933908D+01  0.569455D+01  0.477212D-01 -0.415397D-01
     21  0.203019D+01  0.800844D+00  0.211932D+01 -0.105577D-01  0.896678D-02
     22  0.134863D-01 -0.512362D-01 -0.619093D-01 -0.159487D-02  0.200634D-02
     23 -0.766980D-01 -0.117459D+00 -0.520040D+00  0.288171D-04 -0.309405D-03
     24  0.868311D-02  0.890005D-02  0.283861D-01  0.263218D+01  0.800893D+00
     25 -0.445615D-02  0.202129D-02  0.365977D-02  0.433380D-01 -0.512541D-01
     26  0.110356D-02 -0.320273D-03  0.448963D-03  0.310184D-01 -0.117505D+00
     27 -0.667218D-02  0.486948D-02  0.112242D-01  0.254031D-01 -0.580317D-01
     28  0.204476D-02 -0.580043D-01 -0.117502D+00 -0.455247D-02  0.484498D-02
     29 -0.180893D+01  0.298595D-01 -0.111382D+00 -0.134426D-01 -0.914739D-01
     30 -0.155386D+00 -0.914386D-01 -0.153801D+01 -0.927254D-01  0.298219D-01
               16            17            18            19            20 
     16  0.385007D+12
     17  0.477212D-01  0.385007D+12
     18  0.110112D+00  0.309777D+00  0.243533D+11
     19 -0.101038D+00  0.795337D+01  0.610593D+02  0.243533D+11
     20  0.698507D-01  0.180945D+01  0.675017D+00  0.159049D+03  0.385007D+12
     21  0.468541D-02  0.263226D+01  0.100215D+02  0.237530D+01  0.183607D+01
     22 -0.232014D-02  0.433196D-01 -0.252461D+01 -0.334147D+00 -0.362792D-01
     23  0.361898D-03  0.310548D-01 -0.211161D+01  0.700496D-01  0.838912D-01
     24  0.183583D+01 -0.104648D-01 -0.280179D-01  0.259863D-01  0.476769D-02
     25 -0.362208D-01 -0.160007D-02 -0.450821D-02  0.227882D-02 -0.234881D-02
     26  0.838886D-01 -0.204915D-04 -0.162750D-03 -0.563001D-03  0.304650D-03
     27  0.399369D-02 -0.458138D-02 -0.130313D-01  0.755147D-02 -0.354753D-02
     28 -0.348615D-02  0.253397D-01 -0.241085D+01  0.108681D-01  0.392792D-02
     29 -0.820649D-02 -0.928000D-01 -0.108835D+00 -0.241017D+00  0.442038D-01
     30  0.443074D-01 -0.134776D-01 -0.203547D+00 -0.992651D-01 -0.823402D-02
               21            22            23            24            25 
     21  0.227333D+10
     22  0.481213D+02  0.708114D+10
     23  0.491187D+02 -0.141821D+01  0.708114D+10
     24  0.393236D-02  0.620509D-03  0.771507D-04  0.227333D+10
     25  0.634562D-03  0.254594D-03 -0.113592D-04  0.481211D+02  0.708114D+10
     26  0.115625D-03 -0.245906D-04  0.718576D-04  0.491188D+02 -0.141818D+01
     27  0.195589D-02  0.233152D-03  0.180182D-04  0.483248D+02 -0.142090D+01
     28  0.483248D+02 -0.142089D+01 -0.141318D+01  0.194660D-02  0.241597D-03
     29 -0.326825D-02 -0.836199D-03  0.583905D-02  0.765517D-02  0.385813D-02
     30  0.818933D-02  0.379978D-02 -0.124523D-02 -0.261478D-02 -0.874254D-03
               26            27            28            29            30 
     26  0.708114D+10
     27 -0.141321D+01  0.708114D+10
     28 -0.259436D-04  0.888783D-03  0.708114D+10
     29 -0.116567D-02  0.100466D-01  0.338492D-03  0.708114D+10
     30  0.569586D-02  0.507912D-04  0.981206D-02  0.171606D+00  0.708114D+10
 End of Minotr F.D. properties file   721 does not exist.
 End of Minotr F.D. properties file   722 does not exist.
 End of Minotr F.D. properties file   788 does not exist.
                                                                                                                                                                                                                                                                                                                                                                                                                                                                                                                                                                                                                                                                                                                                                                                                                                                                                                                                                                                                                                                                                                                                                                                                                                                                                                                                                                                                                                                                                                                                                                                                                                                                                                                                                                                                                                                                                                                                                                                                                                                                                                                                                                                                                                                                                                                                                                                                                                                                                                                                                                                                                                                                                                                                                                                                                                                                                                                                                                                                                                                                                                                                                                                                                                                                                                                                                                                                                                                                                                                                                                                                                                                                                                                                                                                                                                                                                                                                                                                                                                                                                                                                                                                                                                                                                                                                                                                                                                                                                                                                                                                                                                                                                                                                                                                                                                                                                                                                                                                                                                                                                                                                                                                                                                                                                                                                                                                                                                                                                                                                                                                                                                                                                                                                                                                                                                                                                                                                                                                                                                                                                                                                                                                                                                                                                                                                                                                                                                                                                                                                                                                                                                                                                                                                                                                                                                                                                                                                                                                                                                                                                                                                                                                                                                                                                                                                                                                                                                                                                                                                                                                                                                                                                                                                                                                                                                                                                                                                                                                                                                                                                                                                                                                                                                                                                                                                                                                                                                                                                                                                                                                                                                                                                                                                                                                                                                                                                                                                                                                                                                                                                                                                                                                                                                                                                                                                                                                                                                                                                                                                                                                                                                                                                                                                                                                                                                                                                                                                                                                                                                                                                                                                                                                                                                                                                                                                                                                                                                                                                                                                                                                                                                                                                                                                                                                                                                                                                                                                                                                                                                                                                                                                                                                                                                                                                                                                                                                                                                                                                                                                                                                                                                                                                                                                                                                                                                                                                                                                                                                                                                                                                                                                                                                                                                                                                                                                                                                                                                                                                                                                                                                                                                                                                                                                                                                                                                                                                                                                                                                                                                                                                                                                                                                                                                                                                                                                                                                                                                                                                                                                                                                                                                                                                                                                                                                                                                                                                                                                                                                                                                                                                                                                                                                                                                                                                                                                                                                                                                                                                                                                                                                                                                                                                                                                                                                                                                                                                                                                                                                                                                                                                                                                                                                                                                                                                                                                                                                                                                                                                                                                                                                                                                                                                                                                                                                                                                                                                                                                                                                                                                                                                                                                                                                                                                                                                                                                                                                                                                                                                                                                                                                                                                                                                                                                                                                                                                                                                                                                                                                                                                                                                                                                                                                                                                                                                                                                                                                                                                                                                                                                                                                                                                                                                                                                                                                                                                                                                                                                                                                                                                                                                                                                                                                                                                                                                                                                                                                                                                                                                                                                                                                                                                                                                                                                                                                                                                                                                                                                                                                                                                                                                                                                                                                                                                                                                                                                                                                                                                                                                                                                                                                                                                                                                                                                                                                                                                                                                                                                                                                                                                                                                                                                                                                                                                                                                                                                                                                                                                                                                                                                                                                                                                                                                                                                                                                                                                                                                                                                                                                                                                                                                                                                                                                                                                                                                                                                                                                                                                                                                                                                                                                                                                                                                                                                                                                                                                                                                                                                                                                                                                                                                                                                                                                                                                                                                                                                                                                                                                                                                                                                                                                                                                                                                                                                                                                                                                                                                                                                                                                                                                                                                                                                                                                                                                                                                                                                                                                                                                                                                                                                                                                                                                                                                                                                                                                                                                                                                                                                                                                                                                                                                                                                                                                                                                                                                                                                                                                                                                                                                                                                                                                                                                                                                                                                                                                                                                                                                                                                                                                                                                                                                                                                                                                                                                                                                                                                                                                                                                                                                                                                                                                                                                                                                                                                                                                                                                                                                                                                                                                                                                                                                                                                                                                                                                                                                                                                                                                                                                                                                                                                                                                                                                                                                                                                                                                                                                                                                                                                                                                                                                                                                                                                                                                                                                                                                                                                                                                                                                                                                                                                                                                                                                                                                                                                                                                                                                                                                                                                                                                                                                                                                                                                                                                                                                                                                                                                                                                                                                                                                                                                                                                                                                                                                                                                                                                                                                                                                                                                                                                                                                                                                                                                                                                                                                                                                                                                                                                                                                                                                                                                                                                                                                                                                                                                                                                                                                                                                                                                                                                                                                                                                                                                                                                                                                                                                                                                                                                                                                                                                                                                                                                                                                                                                                                                                                                                                                                                                                                                                                                                                                                                                                                                                                                                                                                                                                                                                                                                                                                                                                                                                                                                                                                                                                                                                                                                                                                                                                                                                                                                                                                                                                                                                                                                                                                                                                                                                                                                                                                                                                                                                                                                                                                                                                                                                                                                                                                                                                                                                                                                                                                                                                                                                                                                                                                                                                                                                                                                                                                                                                                                                                                                                                                                                                                                                                                                                                                                                                                                                                                                                                                                                                                                0 127.07442
  Beta virt. eigenvalues --  127.09319 152.99864 152.99921 153.04251 153.04254
  Beta virt. eigenvalues --  153.12074 153.12075 153.15494 153.19341 193.11951
  Beta virt. eigenvalues --  193.11985 242.02394 242.25080 242.59278 242.76563
  Beta virt. eigenvalues --  242.81910 242.87044 243.00220 243.08107 243.18734
  Beta virt. eigenvalues --  243.21526 243.24837 243.28313 243.38445 243.46655
  Beta virt. eigenvalues --  257.21375 257.21395 257.24273 257.24276 257.28136
  Beta virt. eigenvalues --  257.28177 387.73050 387.73080 432.38877 432.39719
  Beta virt. eigenvalues --  432.46008 432.46683 432.51205 432.52937 436.86722
  Beta virt. eigenvalues --  436.86774 436.90758 436.90763 436.97807 436.97808
  Beta virt. eigenvalues --  437.00761 437.04311 764.83289 764.83319 957.43352
  Beta virt. eigenvalues --  957.62430 957.89734 958.03643 958.08250 958.12068
  Beta virt. eigenvalues --  958.22301 958.28639 958.37398 958.39467 958.41998
  Beta virt. eigenvalues --  958.44906 958.53631 958.602251089.540721089.54088
  Beta virt. eigenvalues -- 1089.561011089.561031089.587791089.588081378.25784
  Beta virt. eigenvalues -- 1378.265661378.324391378.330711378.372791378.38903
  Beta virt. eigenvalues -- 1548.715901548.716191730.211301730.211751730.24638
  Beta virt. eigenvalues -- 1730.246411730.308031730.308031730.332271730.36337
  Beta virt. eigenvalues -- 3235.998953235.999224489.378544489.385774489.44090
  Beta virt. eigenvalues -- 4489.446834489.485714489.500825243.476365243.63441
  Beta virt. eigenvalues -- 5243.853995243.967335244.006825244.036055244.11635
  Beta virt. eigenvalues -- 5244.169135244.242255244.257935244.276175244.30132
  Beta virt. eigenvalues -- 5244.375075244.427908629.275488629.275739451.34848
  Beta virt. eigenvalues -- 9451.348869451.377799451.377829451.429329451.42932
  Beta virt. eigenvalues -- 9451.447849451.47386******************************
  Beta virt. eigenvalues -- **************************************************
  Beta virt. eigenvalues -- **************************************************
  Beta virt. eigenvalues -- **************************************************
  Beta virt. eigenvalues -- **************************************************
  Beta virt. eigenvalues -- **************************************************
  Beta virt. eigenvalues -- **************************************************
  Beta virt. eigenvalues -- **************************************************
  Beta virt. eigenvalues -- **************************************************
  Beta virt. eigenvalues -- **************************************************
  Beta virt. eigenvalues -- ********************
          Condensed to atoms (all electrons):
               1          2          3          4          5          6
     1  C    5.594610   0.419886  -0.028336  -0.030398  -0.018464   0.399210
     2  C    0.419886   5.346464   0.305421  -0.077524  -0.054111  -0.052262
     3  C   -0.028336   0.305421   5.492544   0.314770  -0.077039  -0.021187
     4  C   -0.030398  -0.077524   0.314770   5.399275   0.407140  -0.036008
     5  C   -0.018464  -0.054111  -0.077039   0.407140   5.225452   0.436229
     6  C    0.399210  -0.052262  -0.021187  -0.036008   0.436229   5.118167
     7  C    0.007034  -0.066947   0.181800   0.066359   0.012247  -0.000472
     8  C   -0.001138   0.012671   0.063040   0.193705  -0.073247   0.006940
     9  C    0.000207  -0.003731  -0.100588   0.017089   0.020101  -0.000436
    10  C   -0.000555   0.021352   0.017087  -0.104128  -0.003563   0.000201
    11  C   -0.000002  -0.000327   0.020101  -0.003563   0.000012   0.000001
    12  H    0.000000  -0.000026   0.001403  -0.000046   0.000000   0.000000
    13  C    0.000001   0.000004  -0.003732   0.021353  -0.000327  -0.000003
    14  H   -0.046204   0.366157  -0.056398   0.004047  -0.000159   0.005395
    15  H    0.005519   0.000013   0.005179  -0.053739   0.361262  -0.053005
    16  H   -0.047613   0.005405   0.000031   0.004833  -0.049618   0.371612
    17  H    0.000000   0.000000  -0.000054   0.001203  -0.000019   0.000000
    18  C    0.000000   0.000001   0.000207  -0.000555  -0.000002   0.000000
    19  C    0.000000  -0.000003  -0.000436   0.000201   0.000001   0.000000
    20  H    0.000000   0.000000   0.000000   0.000001   0.000000   0.000000
    21  S    0.000000   0.000000   0.000000  -0.000004   0.000000   0.000000
    22  O    0.000000   0.000000   0.000000   0.000000   0.000000   0.000000
    23  O    0.000000   0.000000   0.000000   0.000000   0.000000   0.000000
    24  S    0.150462  -0.016972   0.001473  -0.000441   0.000995  -0.014538
    25  O   -0.066796   0.001997  -0.000109   0.000000   0.000528  -0.001162
    26  O   -0.068287   0.000058   0.001075   0.000010  -0.000071   0.002714
    27  O   -0.071931  -0.002965  -0.000108  -0.000008  -0.000031  -0.003228
    28  O    0.000000   0.000000   0.000000   0.000000   0.000000   0.000000
    29  O    0.001206   0.002801  -0.124499   0.006757  -0.000028  -0.000004
    30  O   -0.000016  -0.000009   0.006757  -0.126812   0.001244   0.001137
               7          8          9         10         11         12
     1  C    0.007034  -0.001138   0.000207  -0.000555  -0.000002   0.000000
     2  C   -0.066947   0.012671  -0.003731   0.021352  -0.000327  -0.000026
     3  C    0.181800   0.063040  -0.100588   0.017087   0.020101   0.001403
     4  C    0.066359   0.193705   0.017089  -0.104128  -0.003563  -0.000046
     5  C    0.012247  -0.073247   0.020101  -0.003563   0.000012   0.000000
     6  C   -0.000472   0.006940  -0.000436   0.000201   0.000001   0.000000
     7  C    4.802544  -0.085537   0.063041   0.193705  -0.073248  -0.007203
     8  C   -0.085537   4.802558   0.181799   0.066360   0.012248  -0.000101
     9  C    0.063041   0.181799   5.492539   0.314770  -0.077038   0.005179
    10  C    0.193705   0.066360   0.314770   5.399285   0.407135  -0.053739
    11  C   -0.073248   0.012248  -0.077038   0.407135   5.225460   0.361262
    12  H   -0.007203  -0.000101   0.005179  -0.053739   0.361262   0.608883
    13  C    0.012671  -0.066952   0.305418  -0.077527  -0.054112   0.000013
    14  H   -0.005236  -0.000031  -0.000054   0.001203  -0.000019  -0.000014
    15  H   -0.000101  -0.007203   0.001403  -0.000046   0.000000   0.000000
    16  H    0.000001  -0.000097   0.000000   0.000001   0.000000   0.000000
    17  H   -0.000031  -0.005236  -0.056397   0.004047  -0.000159   0.000015
    18  C   -0.001138   0.007035  -0.028337  -0.030397  -0.018465   0.005519
    19  C    0.006940  -0.000472  -0.021188  -0.036005   0.436224  -0.053005
    20  H   -0.000097   0.000001   0.000031   0.004833  -0.049618  -0.005172
    21  S   -0.000003  -0.000172   0.001473  -0.000441   0.000995  -0.000007
    22  O    0.000000   0.000000  -0.000109   0.000000   0.000528   0.000002
    23  O    0.000000  -0.000025   0.001076   0.000010  -0.000071   0.000000
    24  S   -0.000172  -0.000003   0.000000  -0.000004   0.000000   0.000000
    25  O    0.000000   0.000000   0.000000   0.000000   0.000000   0.000000
    26  O   -0.000025   0.000000   0.000000   0.000000   0.000000   0.000000
    27  O    0.000000   0.000000   0.000000   0.000000   0.000000   0.000000
    28  O    0.000000   0.000000  -0.000109  -0.000008  -0.000031   0.000001
    29  O    0.703349  -0.000960   0.006757  -0.126813   0.001243   0.025246
    30  O   -0.000960   0.703340  -0.124496   0.006757  -0.000028   0.000000
              13         14         15         16         17         18
     1  C    0.000001  -0.046204   0.005519  -0.047613   0.000000   0.000000
     2  C    0.000004   0.366157   0.000013   0.005405   0.000000   0.000001
     3  C   -0.003732  -0.056398   0.005179   0.000031  -0.000054   0.000207
     4  C    0.021353   0.004047  -0.053739   0.004833   0.001203  -0.000555
     5  C   -0.000327  -0.000159   0.361262  -0.049618  -0.000019  -0.000002
     6  C   -0.000003   0.005395  -0.053005   0.371612   0.000000   0.000000
     7  C    0.012671  -0.005236  -0.000101   0.000001  -0.000031  -0.001138
     8  C   -0.066952  -0.000031  -0.007203  -0.000097  -0.005236   0.007035
     9  C    0.305418  -0.000054   0.001403   0.000000  -0.056397  -0.028337
    10  C   -0.077527   0.001203  -0.000046   0.000001   0.004047  -0.030397
    11  C   -0.054112  -0.000019   0.000000   0.000000  -0.000159  -0.018465
    12  H    0.000013  -0.000014   0.000000   0.000000   0.000015   0.005519
    13  C    5.346479   0.000000  -0.000026   0.000000   0.366156   0.419889
    14  H    0.000000   0.532895   0.000015  -0.000147   0.000000   0.000000
    15  H   -0.000026   0.000015   0.608883  -0.005172  -0.000014   0.000000
    16  H    0.000000  -0.000147  -0.005172   0.593271   0.000000   0.000000
    17  H    0.366156   0.000000  -0.000014   0.000000   0.532895  -0.046203
    18  C    0.419889   0.000000   0.000000   0.000000  -0.046203   5.594600
    19  C   -0.052263   0.000000   0.000000   0.000000   0.005395   0.399216
    20  H    0.005405   0.000000   0.000000   0.000000  -0.000147  -0.047612
    21  S   -0.016973   0.000000   0.000000   0.000000  -0.000298   0.150464
    22  O    0.001997   0.000000   0.000000   0.000000   0.000113  -0.066797
    23  O    0.000058   0.000000   0.000000   0.000000   0.012125  -0.068287
    24  S    0.000000  -0.000298  -0.000007   0.001018   0.000000   0.000000
    25  O    0.000000   0.000113   0.000002   0.010055   0.000000   0.000000
    26  O    0.000000   0.012124   0.000000   0.000119   0.000000   0.000000
    27  O    0.000000  -0.000115   0.000001  -0.000522   0.000000   0.000000
    28  O   -0.002964   0.000000   0.000000   0.000000  -0.000115  -0.071929
    29  O   -0.000009   0.020185   0.000000   0.000000   0.000000  -0.000016
    30  O    0.002799   0.000000   0.025245   0.000000   0.020185   0.001206
              19         20         21         22         23         24
     1  C    0.000000   0.000000   0.000000   0.000000   0.000000   0.150462
     2  C   -0.000003   0.000000   0.000000   0.000000   0.000000  -0.016972
     3  C   -0.000436   0.000000   0.000000   0.000000   0.000000   0.001473
     4  C    0.000201   0.000001  -0.000004   0.000000   0.000000  -0.000441
     5  C    0.000001   0.000000   0.000000   0.000000   0.000000   0.000995
     6  C    0.000000   0.000000   0.000000   0.000000   0.000000  -0.014538
     7  C    0.006940  -0.000097  -0.000003   0.000000   0.000000  -0.000172
     8  C   -0.000472   0.000001  -0.000172   0.000000  -0.000025  -0.000003
     9  C   -0.021188   0.000031   0.001473  -0.000109   0.001076   0.000000
    10  C   -0.036005   0.004833  -0.000441   0.000000   0.000010  -0.000004
    11  C    0.436224  -0.049618   0.000995   0.000528  -0.000071   0.000000
    12  H   -0.053005  -0.005172  -0.000007   0.000002   0.000000   0.000000
    13  C   -0.052263   0.005405  -0.016973   0.001997   0.000058   0.000000
    14  H    0.000000   0.000000   0.000000   0.000000   0.000000  -0.000298
    15  H    0.000000   0.000000   0.000000   0.000000   0.000000  -0.000007
    16  H    0.000000   0.000000   0.000000   0.000000   0.000000   0.001018
    17  H    0.005395  -0.000147  -0.000298   0.000113   0.012125   0.000000
    18  C    0.399216  -0.047612   0.150464  -0.066797  -0.068287   0.000000
    19  C    5.118166   0.371612  -0.014539  -0.001161   0.002714   0.000000
    20  H    0.371612   0.593271   0.001018   0.010054   0.000119   0.000000
    21  S   -0.014539   0.001018  13.270983   0.466645   0.481625   0.000000
    22  O   -0.001161   0.010054   0.466645   8.384227  -0.062210   0.000000
    23  O    0.002714   0.000119   0.481625  -0.062210   8.346134   0.000000
    24  S    0.000000   0.000000   0.000000   0.000000   0.000000  13.270984
    25  O    0.000000   0.000000   0.000000   0.000000   0.000000   0.466643
    26  O    0.000000   0.000000   0.000000   0.000000   0.000000   0.481625
    27  O    0.000000   0.000000   0.000000   0.000000   0.000000   0.511017
    28  O   -0.003228  -0.000522   0.511016  -0.066703  -0.063690   0.000000
    29  O    0.001137   0.000000   0.000000   0.000000   0.000000  -0.000033
    30  O   -0.000004   0.000000  -0.000033   0.000000   0.000001   0.000000
              25         26         27         28         29         30
     1  C   -0.066796  -0.068287  -0.071931   0.000000   0.001206  -0.000016
     2  C    0.001997   0.000058  -0.002965   0.000000   0.002801  -0.000009
     3  C   -0.000109   0.001075  -0.000108   0.000000  -0.124499   0.006757
     4  C    0.000000   0.000010  -0.000008   0.000000   0.006757  -0.126812
     5  C    0.000528  -0.000071  -0.000031   0.000000  -0.000028   0.001244
     6  C   -0.001162   0.002714  -0.003228   0.000000  -0.000004   0.001137
     7  C    0.000000  -0.000025   0.000000   0.000000   0.703349  -0.000960
     8  C    0.000000   0.000000   0.000000   0.000000  -0.000960   0.703340
     9  C    0.000000   0.000000   0.000000  -0.000109   0.006757  -0.124496
    10  C    0.000000   0.000000   0.000000  -0.000008  -0.126813   0.006757
    11  C    0.000000   0.000000   0.000000  -0.000031   0.001243  -0.000028
    12  H    0.000000   0.000000   0.000000   0.000001   0.025246   0.000000
    13  C    0.000000   0.000000   0.000000  -0.002964  -0.000009   0.002799
    14  H    0.000113   0.012124  -0.000115   0.000000   0.020185   0.000000
    15  H    0.000002   0.000000   0.000001   0.000000   0.000000   0.025245
    16  H    0.010055   0.000119  -0.000522   0.000000   0.000000   0.000000
    17  H    0.000000   0.000000   0.000000  -0.000115   0.000000   0.020185
    18  C    0.000000   0.000000   0.000000  -0.071929  -0.000016   0.001206
    19  C    0.000000   0.000000   0.000000  -0.003228   0.001137  -0.000004
    20  H    0.000000   0.000000   0.000000  -0.000522   0.000000   0.000000
    21  S    0.000000   0.000000   0.000000   0.511016   0.000000  -0.000033
    22  O    0.000000   0.000000   0.000000  -0.066703   0.000000   0.000000
    23  O    0.000000   0.000000   0.000000  -0.063690   0.000000   0.000001
    24  S    0.466643   0.481625   0.511017   0.000000  -0.000033   0.000000
    25  O    8.384228  -0.062210  -0.066703   0.000000   0.000000   0.000000
    26  O   -0.062210   8.346132  -0.063690   0.000000   0.000001   0.000000
    27  O   -0.066703  -0.063690   8.342568   0.000000   0.000000   0.000000
    28  O    0.000000   0.000000   0.000000   8.342566   0.000000   0.000000
    29  O    0.000000   0.000001   0.000000   0.000000   8.002614   0.000000
    30  O    0.000000   0.000000   0.000000   0.000000   0.000000   8.002621
          Atomic-Atomic Spin Densities.
               1          2          3          4          5          6
     1  C    0.049166   0.014968  -0.004199   0.002617  -0.003062  -0.019865
     2  C    0.014968  -0.005845  -0.014441   0.003208   0.000560  -0.002890
     3  C   -0.004199  -0.014441   0.078692  -0.035513   0.003225   0.002877
     4  C    0.002617   0.003208  -0.035513   0.087631  -0.015883  -0.004516
     5  C   -0.003062   0.000560   0.003225  -0.015883  -0.003525   0.016252
     6  C   -0.019865  -0.002890   0.002877  -0.004516   0.016252   0.044597
     7  C   -0.000386  -0.002562   0.039791  -0.006670   0.000050   0.000085
     8  C    0.000082   0.000024  -0.006264   0.040302  -0.002702  -0.000428
     9  C    0.000006   0.000051  -0.001367  -0.000161  -0.000347  -0.000010
    10  C   -0.000010  -0.000345  -0.000162  -0.001748   0.000056   0.000007
    11  C    0.000000   0.000011  -0.000347   0.000056  -0.000002   0.000000
    12  H    0.000000   0.000002  -0.000028   0.000000   0.000000   0.000000
    13  C    0.000000  -0.000002   0.000051  -0.000344   0.000011   0.000000
    14  H   -0.000352   0.000683   0.000983  -0.000002   0.000017  -0.000012
    15  H   -0.000005   0.000019  -0.000022   0.001013   0.001002  -0.000317
    16  H   -0.000085  -0.000016  -0.000015   0.000022  -0.000138   0.000351
    17  H    0.000000   0.000000   0.000000  -0.000022   0.000001   0.000000
    18  C    0.000000   0.000000   0.000006  -0.000010   0.000000   0.000000
    19  C    0.000000   0.000000  -0.000010   0.000006   0.000000   0.000000
    20  H    0.000000   0.000000   0.000000   0.000000   0.000000   0.000000
    21  S    0.000000   0.000000   0.000000   0.000000   0.000000   0.000000
    22  O    0.000000   0.000000   0.000000   0.000000   0.000000   0.000000
    23  O    0.000000   0.000000   0.000000   0.000000   0.000000   0.000000
    24  S    0.001317   0.000207  -0.000051   0.000024  -0.000036  -0.000470
    25  O   -0.000536  -0.000018   0.000001  -0.000001   0.000004   0.000275
    26  O   -0.000319  -0.000012   0.000004   0.000000   0.000000   0.000018
    27  O   -0.000948  -0.000111   0.000004  -0.000001   0.000004   0.000286
    28  O    0.000000   0.000000   0.000000   0.000000   0.000000   0.000000
    29  O    0.000016   0.001066  -0.005041   0.000316  -0.000002  -0.000002
    30  O   -0.000002  -0.000002   0.000299  -0.005444   0.001324   0.000022
               7          8          9         10         11         12
     1  C   -0.000386   0.000082   0.000006  -0.000010   0.000000   0.000000
     2  C   -0.002562   0.000024   0.000051  -0.000345   0.000011   0.000002
     3  C    0.039791  -0.006264  -0.001367  -0.000162  -0.000347  -0.000028
     4  C   -0.006670   0.040302  -0.000161  -0.001748   0.000056   0.000000
     5  C    0.000050  -0.002702  -0.000347   0.000056  -0.000002   0.000000
     6  C    0.000085  -0.000428  -0.000010   0.000007   0.000000   0.000000
     7  C    0.095429  -0.001202  -0.006263   0.040304  -0.002702   0.000025
     8  C   -0.001202   0.095431   0.039789  -0.006670   0.000050  -0.000004
     9  C   -0.006263   0.039789   0.078699  -0.035513   0.003224  -0.000022
    10  C    0.040304  -0.006670  -0.035513   0.087624  -0.015882   0.001014
    11  C   -0.002702   0.000050   0.003224  -0.015882  -0.003518   0.001001
    12  H    0.000025  -0.000004  -0.000022   0.001014   0.001001  -0.001831
    13  C    0.000024  -0.002563  -0.014441   0.003208   0.000561   0.000019
    14  H   -0.000003  -0.000004   0.000000  -0.000022   0.000001   0.000001
    15  H   -0.000004   0.000025  -0.000028   0.000000   0.000000   0.000000
    16  H    0.000000   0.000000   0.000000   0.000000   0.000000   0.000000
    17  H   -0.000004  -0.000003   0.000983  -0.000002   0.000017   0.000000
    18  C    0.000082  -0.000386  -0.004200   0.002617  -0.003062  -0.000005
    19  C   -0.000428   0.000085   0.002878  -0.004516   0.016252  -0.000317
    20  H    0.000000   0.000000  -0.000015   0.000022  -0.000138   0.000021
    21  S    0.000000  -0.000002  -0.000051   0.000024  -0.000036  -0.000001
    22  O    0.000000   0.000000   0.000001  -0.000001   0.000004   0.000000
    23  O    0.000000   0.000000   0.000004   0.000000   0.000000   0.000000
    24  S   -0.000002   0.000000   0.000000   0.000000   0.000000   0.000000
    25  O    0.000000   0.000000   0.000000   0.000000   0.000000   0.000000
    26  O    0.000000   0.000000   0.000000   0.000000   0.000000   0.000000
    27  O    0.000000   0.000000   0.000000   0.000000   0.000000   0.000000
    28  O    0.000000   0.000000   0.000004  -0.000001   0.000004   0.000000
    29  O   -0.063637   0.000047   0.000299  -0.005443   0.001324  -0.000607
    30  O    0.000047  -0.063636  -0.005041   0.000316  -0.000002   0.000000
              13         14         15         16         17         18
     1  C    0.000000  -0.000352  -0.000005  -0.000085   0.000000   0.000000
     2  C   -0.000002   0.000683   0.000019  -0.000016   0.000000   0.000000
     3  C    0.000051   0.000983  -0.000022  -0.000015   0.000000   0.000006
     4  C   -0.000344  -0.000002   0.001013   0.000022  -0.000022  -0.000010
     5  C    0.000011   0.000017   0.001002  -0.000138   0.000001   0.000000
     6  C    0.000000  -0.000012  -0.000317   0.000351   0.000000   0.000000
     7  C    0.000024  -0.000003  -0.000004   0.000000  -0.000004   0.000082
     8  C   -0.002563  -0.000004   0.000025   0.000000  -0.000003  -0.000386
     9  C   -0.014441   0.000000  -0.000028   0.000000   0.000983  -0.004200
    10  C    0.003208  -0.000022   0.000000   0.000000  -0.000002   0.002617
    11  C    0.000561   0.000001   0.000000   0.000000   0.000017  -0.003062
    12  H    0.000019   0.000001   0.000000   0.000000   0.000000  -0.000005
    13  C   -0.005850   0.000000   0.000002   0.000000   0.000683   0.014969
[...]
    29  O   -0.622158   0.223174
    30  O   -0.622157   0.223174
 Electronic spatial extent (au):  <R**2>=          13482.0390
 Charge=             -3.0000 electrons
 Dipole moment (field-independent basis, Debye):
    X=              0.0000    Y=              0.0000    Z=             -0.3722  Tot=              0.3722
 Quadrupole moment (field-independent basis, Debye-Ang):
   XX=           -528.3141   YY=           -195.9587   ZZ=           -169.1304
   XY=            -17.6110   XZ=             -0.0023   YZ=             -0.0072
 Traceless Quadrupole moment (field-independent basis, Debye-Ang):
   XX=           -230.5130   YY=            101.8424   ZZ=            128.6706
   XY=            -17.6110   XZ=             -0.0023   YZ=             -0.0072
 Octapole moment (field-independent basis, Debye-Ang**2):
  XXX=              0.0001  YYY=             -0.0010  ZZZ=            -10.6498  XYY=              0.0001
  XXY=              0.0002  XXZ=            -11.7830  XZZ=             -0.0001  YZZ=              0.0013
  YYZ=              9.3212  XYZ=             -2.3066
 Hexadecapole moment (field-independent basis, Debye-Ang**3):
 XXXX=         -28811.6837 YYYY=          -1941.2246 ZZZZ=           -393.4254 XXXY=           -182.8686
 XXXZ=             -0.0208 YYYX=           -127.1703 YYYZ=             -0.1082 ZZZX=             -0.0064
 ZZZY=             -0.0519 XXYY=          -3282.8275 XXZZ=          -3168.7789 YYZZ=           -351.5597
 XXYZ=             -0.0182 YYXZ=             -0.0221 ZZXY=             43.5909
 N-N= 2.237193979931D+03 E-N=-9.095474926931D+03  KE= 1.922178503496D+03
                          Isotropic Fermi Contact Couplings
        Atom                 a.u.       MegaHertz       Gauss      10(-4) cm-1
     1  C(13)              0.00394       4.42433       1.57871       1.47580
     2  C(13)             -0.00264      -2.96493      -1.05796      -0.98899
     3  C(13)              0.00221       2.48715       0.88748       0.82962
     4  C(13)              0.00288       3.23525       1.15442       1.07916
     5  C(13)             -0.00251      -2.82252      -1.00715      -0.94149
     6  C(13)              0.00294       3.30535       1.17943       1.10255
     7  C(13)              0.00354       3.97588       1.41869       1.32621
     8  C(13)              0.00354       3.97640       1.41888       1.32638
     9  C(13)              0.00221       2.48727       0.88752       0.82966
    10  C(13)              0.00288       3.23520       1.15440       1.07915
    11  C(13)             -0.00251      -2.82223      -1.00704      -0.94140
    12  H(1)              -0.00009      -0.38299      -0.13666      -0.12775
    13  C(13)             -0.00264      -2.96489      -1.05795      -0.98898
    14  H(1)              -0.00006      -0.26958      -0.09619      -0.08992
    15  H(1)              -0.00009      -0.38336      -0.13679      -0.12787
    16  H(1)              -0.00066      -2.94500      -1.05085      -0.98235
    17  H(1)              -0.00006      -0.26952      -0.09617      -0.08990
    18  C(13)              0.00394       4.42461       1.57881       1.47589
    19  C(13)              0.00294       3.30526       1.17940       1.10252
    20  H(1)              -0.00066      -2.94506      -1.05087      -0.98237
    21  S(33)             -0.00207      -0.71070      -0.25360      -0.23706
    22  O(17)             -0.00001       0.00341       0.00122       0.00114
    23  O(17)              0.00015      -0.09196      -0.03281      -0.03067
    24  S(33)             -0.00207      -0.71063      -0.25357      -0.23704
    25  O(17)             -0.00001       0.00339       0.00121       0.00113
    26  O(17)              0.00015      -0.09202      -0.03284      -0.03070
    27  O(17)              0.00051      -0.30770      -0.10980      -0.10264
    28  O(17)              0.00051      -0.30769      -0.10979      -0.10263
    29  O(17)              0.03411     -20.67913      -7.37883      -6.89781
    30  O(17)              0.03411     -20.67906      -7.37880      -6.89779
 --------------------------------------------------------
       Center         ----  Spin Dipole Couplings  ----
                      3XX-RR        3YY-RR        3ZZ-RR
 --------------------------------------------------------
     1   Atom       -0.020738     -0.023364      0.044102
     2   Atom        0.005152     -0.001297     -0.003855
     3   Atom       -0.035478     -0.034908      0.070386
     4   Atom       -0.037255     -0.039597      0.076852
     5   Atom        0.004968     -0.002957     -0.002011
     6   Atom       -0.018434     -0.019992      0.038426
     7   Atom       -0.069855     -0.048048      0.117902
     8   Atom       -0.069854     -0.048048      0.117902
     9   Atom       -0.035479     -0.034908      0.070387
    10   Atom       -0.037256     -0.039598      0.076854
    11   Atom        0.004967     -0.002958     -0.002010
    12   Atom        0.004122     -0.000245     -0.003877
    13   Atom        0.005152     -0.001297     -0.003856
    14   Atom        0.004306     -0.000591     -0.003715
    15   Atom        0.004122     -0.000245     -0.003877
    16   Atom        0.002167     -0.000737     -0.001430
    17   Atom        0.004306     -0.000591     -0.003715
    18   Atom       -0.020738     -0.023364      0.044102
    19   Atom       -0.018434     -0.019991      0.038425
    20   Atom        0.002167     -0.000737     -0.001430
    21   Atom       -0.002164      0.001127      0.001037
    22   Atom        0.002104     -0.000883     -0.001221
    23   Atom       -0.000043     -0.002267      0.002310
    24   Atom       -0.002163      0.001127      0.001037
    25   Atom        0.002103     -0.000882     -0.001221
    26   Atom       -0.000042     -0.002268      0.002309
    27   Atom        0.010621     -0.005182     -0.005439
    28   Atom        0.010619     -0.005181     -0.005438
    29   Atom       -0.435307     -0.442733      0.878040
    30   Atom       -0.435304     -0.442739      0.878044
 --------------------------------------------------------
                        XY            XZ            YZ
 --------------------------------------------------------
     1   Atom       -0.000031      0.001095      0.001583
     2   Atom       -0.002623      0.000063      0.000178
     3   Atom       -0.001721     -0.000095      0.000420
     4   Atom        0.001299      0.000208      0.000617
     5   Atom       -0.001519     -0.000022     -0.000055
     6   Atom       -0.000683     -0.000728      0.001946
     7   Atom        0.005917      0.000583     -0.000730
     8   Atom        0.005917     -0.000590      0.000675
     9   Atom       -0.001721      0.000045     -0.000292
    10   Atom        0.001298     -0.000094     -0.000530
    11   Atom       -0.001519      0.000015      0.000068
    12   Atom       -0.001683     -0.000048      0.000018
    13   Atom       -0.002623     -0.000051     -0.000169
    14   Atom       -0.000985      0.000003     -0.000028
    15   Atom       -0.001683      0.000049     -0.000019
    16   Atom       -0.003644      0.000112     -0.000047
    17   Atom       -0.000985     -0.000004      0.000028
    18   Atom       -0.000031     -0.001089     -0.001599
    19   Atom       -0.000683      0.000718     -0.001957
    20   Atom       -0.003644     -0.000113      0.000048
    21   Atom       -0.001389     -0.000185     -0.000012
    22   Atom       -0.002017      0.001551     -0.000797
    23   Atom        0.001035      0.003155      0.002149
    24   Atom       -0.001389      0.000186      0.000012
    25   Atom       -0.002017     -0.001551      0.000797
    26   Atom        0.001035     -0.003156     -0.002148
    27   Atom       -0.002515     -0.001038      0.000109
    28   Atom       -0.002515      0.001038     -0.000109
    29   Atom       -0.002138      0.004273     -0.004315
    30   Atom       -0.002135     -0.004580      0.002992
 --------------------------------------------------------


 ---------------------------------------------------------------------------------
              Anisotropic Spin Dipole Couplings in Principal Axis System
 ---------------------------------------------------------------------------------

       Atom             a.u.   MegaHertz   Gauss  10(-4) cm-1        Axes

              Baa    -0.0234    -3.140    -1.121    -1.048  0.0213  0.9995 -0.0238
     1 C(13)  Bbb    -0.0208    -2.785    -0.994    -0.929  0.9996 -0.0217 -0.0164
              Bcc     0.0442     5.926     2.114     1.977  0.0169  0.0234  0.9996
 
              Baa    -0.0039    -0.520    -0.186    -0.174 -0.0382 -0.1075  0.9935
     2 C(13)  Bbb    -0.0022    -0.296    -0.106    -0.099  0.3327  0.9361  0.1141
              Bcc     0.0061     0.816     0.291     0.272  0.9423 -0.3348  0.0000
 
              Baa    -0.0369    -4.957    -1.769    -1.653  0.7626  0.6469 -0.0019
     3 C(13)  Bbb    -0.0334    -4.489    -1.602    -1.497 -0.6469  0.7626 -0.0037
              Bcc     0.0704     9.445     3.370     3.151 -0.0010  0.0040  1.0000
 
              Baa    -0.0402    -5.391    -1.924    -1.798 -0.4060  0.9139 -0.0041
     4 C(13)  Bbb    -0.0367    -4.922    -1.756    -1.642  0.9139  0.4059 -0.0039
              Bcc     0.0769    10.313     3.680     3.440  0.0019  0.0053  1.0000
 
              Baa    -0.0032    -0.435    -0.155    -0.145  0.1819  0.9822  0.0469
     5 C(13)  Bbb    -0.0020    -0.269    -0.096    -0.090 -0.0070 -0.0464  0.9989
              Bcc     0.0052     0.704     0.251     0.235  0.9833 -0.1820 -0.0015
 
              Baa    -0.0203    -2.723    -0.972    -0.908  0.3358  0.9415 -0.0270
     6 C(13)  Bbb    -0.0182    -2.444    -0.872    -0.815  0.9418 -0.3353  0.0236
              Bcc     0.0385     5.166     1.844     1.723 -0.0132  0.0334  0.9994
 
              Baa    -0.0714    -9.576    -3.417    -3.194  0.9692 -0.2461 -0.0039
     7 C(13)  Bbb    -0.0465    -6.246    -2.229    -2.084  0.2462  0.9692  0.0034
              Bcc     0.1179    15.822     5.646     5.278  0.0030 -0.0043  1.0000
 
              Baa    -0.0714    -9.576    -3.417    -3.194  0.9692 -0.2461  0.0039
     8 C(13)  Bbb    -0.0465    -6.246    -2.229    -2.084  0.2462  0.9692 -0.0031
              Bcc     0.1179    15.822     5.646     5.278 -0.0030  0.0040  1.0000
 
              Baa    -0.0369    -4.957    -1.769    -1.653  0.7626  0.6468  0.0014
     9 C(13)  Bbb    -0.0334    -4.489    -1.602    -1.497 -0.6468  0.7626  0.0024
              Bcc     0.0704     9.445     3.370     3.151  0.0005 -0.0028  1.0000
 
              Baa    -0.0402    -5.391    -1.924    -1.798 -0.4060  0.9139  0.0038
    10 C(13)  Bbb    -0.0367    -4.922    -1.756    -1.642  0.9139  0.4060  0.0027
              Bcc     0.0769    10.313     3.680     3.440 -0.0009 -0.0046  1.0000
 
              Baa    -0.0032    -0.435    -0.155    -0.145  0.1818  0.9817 -0.0565
    11 C(13)  Bbb    -0.0020    -0.269    -0.096    -0.090  0.0100  0.0556  0.9984
              Bcc     0.0052     0.704     0.251     0.235  0.9833 -0.1820  0.0003
 
              Baa    -0.0039    -2.069    -0.738    -0.690  0.0055 -0.0024  1.0000
    12 H(1)   Bbb    -0.0008    -0.436    -0.156    -0.146  0.3224  0.9466  0.0005
              Bcc     0.0047     2.505     0.894     0.836  0.9466 -0.3224 -0.0060
 
              Baa    -0.0039    -0.520    -0.186    -0.173  0.0349  0.1008  0.9943
    13 C(13)  Bbb    -0.0022    -0.297    -0.106    -0.099  0.3331  0.9369 -0.1067
              Bcc     0.0061     0.816     0.291     0.272  0.9423 -0.3349  0.0009
 
              Baa    -0.0037    -1.982    -0.707    -0.661  0.0008  0.0094  1.0000
    14 H(1)   Bbb    -0.0008    -0.417    -0.149    -0.139  0.1901  0.9817 -0.0093
              Bcc     0.0045     2.399     0.856     0.800  0.9818 -0.1901  0.0010
 
              Baa    -0.0039    -2.069    -0.738    -0.690 -0.0055  0.0026  1.0000
    15 H(1)   Bbb    -0.0008    -0.436    -0.156    -0.146  0.3224  0.9466 -0.0007
              Bcc     0.0047     2.505     0.894     0.836  0.9466 -0.3224  0.0061
 
              Baa    -0.0032    -1.712    -0.611    -0.571  0.5613  0.8275 -0.0134
    16 H(1)   Bbb    -0.0014    -0.764    -0.273    -0.255 -0.0087  0.0221  0.9997
              Bcc     0.0046     2.476     0.883     0.826  0.8276 -0.5610  0.0196
 
              Baa    -0.0037    -1.982    -0.707    -0.661 -0.0006 -0.0091  1.0000
    17 H(1)   Bbb    -0.0008    -0.417    -0.149    -0.139  0.1901  0.9817  0.0091
              Bcc     0.0045     2.399     0.856     0.800  0.9818 -0.1901 -0.0011
 
              Baa    -0.0234    -3.141    -1.121    -1.048  0.0213  0.9995  0.0240
    18 C(13)  Bbb    -0.0208    -2.785    -0.994    -0.929  0.9996 -0.0217  0.0162
              Bcc     0.0442     5.926     2.114     1.977 -0.0168 -0.0237  0.9996
 
              Baa    -0.0203    -2.723    -0.972    -0.908  0.3358  0.9415  0.0273
    19 C(13)  Bbb    -0.0182    -2.444    -0.872    -0.815  0.9418 -0.3353 -0.0235
              Bcc     0.0385     5.166     1.844     1.723  0.0130 -0.0336  0.9994
 
              Baa    -0.0032    -1.712    -0.611    -0.571  0.5613  0.8275  0.0135
    20 H(1)   Bbb    -0.0014    -0.764    -0.273    -0.255  0.0088 -0.0223  0.9997
              Bcc     0.0046     2.476     0.883     0.826  0.8276 -0.5610 -0.0198
 
              Baa    -0.0027    -0.110    -0.039    -0.037  0.9383  0.3425  0.0479
    21 S(33)  Bbb     0.0010     0.043     0.015     0.014 -0.0148 -0.0986  0.9950
              Bcc     0.0016     0.067     0.024     0.022 -0.3456  0.9343  0.0874
 
              Baa    -0.0019     0.138     0.049     0.046  0.3859  0.9048  0.1800
    22 O(17)  Bbb    -0.0018     0.133     0.047     0.044 -0.3769 -0.0235  0.9260
              Bcc     0.0037    -0.270    -0.096    -0.090  0.8421 -0.4251  0.3319
 
              Baa    -0.0031     0.228     0.081     0.076  0.1443  0.8894 -0.4337
    23 O(17)  Bbb    -0.0021     0.152     0.054     0.051  0.8346 -0.3449 -0.4295
              Bcc     0.0052    -0.379    -0.135    -0.127  0.5316  0.3000  0.7921
 
              Baa    -0.0027    -0.110    -0.039    -0.037  0.9383  0.3426 -0.0482
    24 S(33)  Bbb     0.0010     0.043     0.015     0.014  0.0150  0.0989  0.9950
              Bcc     0.0016     0.067     0.024     0.022 -0.3456  0.9343 -0.0877
 
              Baa    -0.0019     0.138     0.049     0.046  0.3857  0.9048 -0.1806
    25 O(17)  Bbb    -0.0018     0.133     0.047     0.044  0.3771  0.0240  0.9259
              Bcc     0.0037    -0.270    -0.096    -0.090  0.8420 -0.4252 -0.3320
 
              Baa    -0.0031     0.228     0.081     0.076  0.1444  0.8894  0.4336
    26 O(17)  Bbb    -0.0021     0.152     0.054     0.051  0.8344 -0.3450  0.4298
              Bcc     0.0052    -0.379    -0.135    -0.127 -0.5319 -0.2998  0.7920
 
              Baa    -0.0056     0.405     0.145     0.135  0.1645  0.8654  0.4733
    27 O(17)  Bbb    -0.0055     0.396     0.141     0.132 -0.0179 -0.4771  0.8786
              Bcc     0.0111    -0.802    -0.286    -0.267  0.9862 -0.1530 -0.0630
 
              Baa    -0.0056     0.405     0.145     0.135  0.1645  0.8653 -0.4735
    28 O(17)  Bbb    -0.0055     0.396     0.141     0.132  0.0179  0.4773  0.8786
              Bcc     0.0111    -0.801    -0.286    -0.267  0.9862 -0.1530  0.0630
 
              Baa    -0.4433    32.078    11.446    10.700  0.2569  0.9664  0.0023
    29 O(17)  Bbb    -0.4348    31.459    11.225    10.493  0.9664 -0.2569 -0.0040
              Bcc     0.8781   -63.536   -22.671   -21.193  0.0033 -0.0033  1.0000
 
              Baa    -0.4433    32.078    11.446    10.700  0.2570  0.9664 -0.0013
    30 O(17)  Bbb    -0.4348    31.459    11.225    10.493  0.9664 -0.2569  0.0040
              Bcc     0.8781   -63.536   -22.671   -21.193 -0.0035  0.0023  1.0000
 

 ---------------------------------------------------------------------------------


 Test job not archived.
 1|1|UNPC-RYZENPC|SP|UB3LYP|Gen|C14H6O8S2(3-,2)|HIROKI|18-Sep-2020|0||#
 N Geom=AllCheck Guess=TCheck SCRF=Check GenChk UB3LYP/ChkBas NMR=ReadF
 C IOp(3/6=22)||AQDS3- trivalent ion and radical NMR sp||-3,2|C,0,-3.75
 836605,0.24775257,-0.02808553|C,0,-2.77117545,-0.72246127,-0.0224799|C
 ,0,-1.39340256,-0.38036636,-0.02093004|C,0,-1.02140781,0.99894117,-0.0
 222566|C,0,-2.05144704,1.9705179,-0.032071|C,0,-3.38547654,1.6150589,-
 0.03613186|C,0,-0.37900116,-1.44100993,-0.02248928|C,0,0.3790015,1.441
 01095,-0.02266975|C,0,1.39340263,0.38036772,-0.02095044|C,0,1.02140806
 ,-0.99893973,-0.02228835|C,0,2.05144692,-1.97051613,-0.03218621|H,0,1.
 74130018,-3.01269431,-0.04308768|C,0,2.77117565,0.72246258,-0.02245037
 |H,0,-3.03926197,-1.77346523,-0.0303387|H,0,-1.74130049,3.01269598,-0.
 04298451|H,0,-4.16789214,2.36874084,-0.06760581|H,0,3.03926211,1.77346
 656,-0.03031377|C,0,3.758366,-0.24775118,-0.02809592|C,0,3.38547636,-1
 .61505702,-0.03624236|H,0,4.16789203,-2.3687378,-0.06774359|S,0,5.5297
 0413,0.17080511,0.02872572|O,0,6.17312207,-0.79287361,-0.91901665|O,0,
 5.6293753,1.59473512,-0.40603571|S,0,-5.52970418,-0.17080706,0.0287101
 5|O,0,-6.17312101,0.79293182,-0.91897188|O,0,-5.62937593,-1.59470915,-
 0.40614299|O,0,-5.94532253,0.04989351,1.44832165|O,0,5.94532116,-0.049
 98519,1.44832373|O,0,-0.68583305,-2.66670447,-0.02508283|O,0,0.6858337
 7,2.6667075,-0.02401209||Version=EM64W-G09RevD.01|State=2-A|HF=-1935.1
 532013|S2=0.761004|S2-1=0.|S2A=0.750046|RMSD=4.914e-009|Dipole=-0.0000
 035,0.0000008,-0.1464157|Quadrupole=-171.3808125,75.7173419,95.6634706
 ,-13.093313,-0.0016875,-0.0053752|PG=C01 [X(C14H6O8S2)]||@


 "THE ACADEMIC HIERARCHY"


 THE PRESIDENT:
   LEAPS TALL BUILDINGS IN A SINGLE BOUND,
     IS MORE POWERFUL THAN A LOCOMOTIVE,
       IS FASTER THAN A SPEEDING BULLET,
         WALKS ON WATER,
           GIVES POLICY TO GOD.

 THE VICE PRESIDENT FOR ACADEMIC AFFAIRS:
   LEAPS SHORT BUILDINGS IN A SINGLE BOUND,
     IS MORE POWERFUL THAN A SWITCH ENGINE,
       IS JUST AS FAST AS A SPEEDING BULLET,
         WALKS ON WATER IF SEA IS CALM,
           TALKS WITH GOD.

 PROFESSOR:
   LEAPS SHORT BUILDINGS WITH A RUNNING START AND FAVORABLE WINDS,
     IS ALMOST AS POWERFUL AS A SWITCH ENGINE,
       CAN FIRE A SPEEDING BULLET,
         WALKS ON WATER IN AN INDOOR SWIMMING POOL,
          TALKS WITH GOD IF SPECIAL REQUEST IS APPROVED.

 ASSOCIATE PROFESSOR:
   BARELY CLEARS A QUONSET HUT,
     LOSES TUG OF WAR WITH LOCOMOTIVE,
       MISFIRES FREQUENTLY,
         SWIMS WELL,
           IS OCCASIONALLY ADDRESSED BY GOD.

 ASSISTANT PROFESSOR:
   MAKES HIGH MARKS ON WALLS WHEN TRYING TO LEAP TALL BUILDINGS,
     IS RUN OVER BY LOCOMOTIVES,
       CAN SOMETIMES HANDLE A GUN WITHOUT INFLICTING SELF INJURY,
         DOG PADDLES,
           TALKS TO ANIMALS.

 GRADUATE STUDENT:
   RUNS INTO BUILDINGS,
     RECOGNIZES LOCOMOTIVES TWO OUT OF THREE TIMES,
       IS NOT ISSUED AMMUNITION,
         CAN STAY AFLOAT WITH A LIFE JACKET,
           TALKS TO WALLS.

 UNDERGRADUATE AND WORK STUDY STUDENT:
   FALLS OVER DOORSTEP WHEN TRYING TO ENTER BUILDINGS,
     SAYS, "LOOK AT THE CHOO-CHOO,"
       WETS HIMSELF WITH A WATER PISTOL,
        PLAYS IN MUD PUDDLES,
          MUMBLES TO HIMSELF.

 DEPARTMENT SECRETARY:
   LIFTS TALL BUILDINGS AND WALKS UNDER THEM,
     KICKS LOCOMOTIVES OFF THE TRACKS,
       CATCHES SPEEDING BULLETS IN HER TEETH AND EATS THEM,
         FREEZES WATER WITH A SINGLE GLANCE,
           IS GOD.
 Job cpu time:       0 days  0 hours 55 minutes 20.0 seconds.
 File lengths (MBytes):  RWF=   2471 Int=      0 D2E=      0 Chk=     42 Scr=      1
 Normal termination of Gaussian 09 at Fri Sep 18 17:12:10 2020.
